version 2
run General-0-20210127-17:30:06-12677
attr configname General
attr datetime 20210127-17:30:06
attr experiment General
attr inifile omnetpp.ini
attr iterationvars ""
attr iterationvarsf ""
attr measurement ""
attr network StopAndWait
attr processid 12677
attr repetition 0
attr replication #0
attr resultdir results
attr runnumber 0
attr seedset 0

vector 0 StopAndWait.endNode[1] HopCount ETV
vector 1 StopAndWait.endNode[0] HopCount ETV
0	23	1.605065379024	2
0	35	2.257037252283	2
0	37	2.384962221343	3
0	47	2.832237252283	2
0	79	4.425162221343	2
0	99	5.055437252283	2
0	127	5.807637252283	2
0	129	5.880837252283	2
0	143	6.753362221343	2
0	145	6.925037252283	2
0	153	7.384237252283	2
0	213	10.927637252283	3
0	225	11.626252302226	2
0	227	11.714837252283	4
0	239	12.575452302226	3
0	245	12.987652302226	2
0	249	13.231037252283	2
0	253	13.356237252283	3
0	259	13.562437252283	4
0	277	14.299637252283	3
0	307	16.817237252283	2
0	363	20.317437252283	2
0	371	21.157637252283	3
0	375	21.344837252283	3
0	391	22.128652302226	2
0	395	22.189037252283	2
0	405	23.246237252283	2
0	409	23.543252302226	2
0	429	24.722452302226	2
0	461	27.081052302226	2
0	481	28.606437252283	2
0	501	29.117452302226	2
0	503	29.183637252283	3
0	525	30.269837252283	2
0	533	30.651037252283	3
0	545	31.250237252283	2
0	555	31.766652302226	2
0	557	31.891437252283	3
0	565	32.149852302226	2
0	573	33.010637252283	3
0	575	33.392837252283	2
0	587	34.036037252283	3
0	607	35.159237252283	3
0	609	35.163437252283	2
0	613	35.477637252283	2
0	649	37.774052302226	2
0	671	39.050837252283	3
0	683	39.539252302226	2
0	729	41.344837252283	2
0	747	42.621652302226	2
0	777	44.986637252283	2
0	787	45.343252302226	2
0	795	46.319452302226	3
0	803	46.753237252283	2
0	843	48.887437252283	2
0	853	49.730637252283	2
0	867	50.584837252283	2
0	869	50.746037252283	2
0	887	51.754237252283	4
0	889	51.759252302226	2
0	895	51.900452302226	3
0	911	52.932652302226	2
0	933	54.011852302226	2
0	959	55.276037252283	2
0	967	55.529237252283	2
0	983	55.800437252283	2
0	993	56.512637252283	3
0	995	56.532837252283	3
0	997	56.557037252283	2
0	1015	57.837237252283	3
0	1063	60.755652302226	2
0	1089	62.476437252283	2
0	1155	65.889837252283	3
0	1163	66.397652302226	2
0	1193	67.668037252283	2
0	1211	68.539237252283	4
0	1217	68.744437252283	2
0	1219	68.986637252283	2
0	1231	69.538837252283	2
0	1269	71.305237252283	2
0	1281	72.484437252283	3
0	1285	72.686637252283	2
0	1291	73.125837252283	2
0	1315	74.732237252283	2
0	1331	75.352452302226	2
0	1355	77.235652302226	2
0	1357	77.384437252283	2
0	1381	78.492637252283	2
0	1387	78.755837252283	2
0	1391	79.616037252283	3
0	1481	83.623237252283	2
0	1491	84.286252302226	3
0	1493	84.459437252283	4
0	1501	85.010637252283	3
0	1509	85.532837252283	2
0	1525	86.222452302226	2
0	1529	86.410652302226	2
0	1561	87.879237252283	4
0	1575	89.351437252283	2
0	1669	93.353037252283	2
0	1685	93.898237252283	2
0	1757	98.435637252283	2
0	1769	98.912837252283	2
0	1775	99.381037252283	2
0	1781	99.557437252283	2
0	1791	100.055637252283	2
0	1835	103.186452302226	2
0	1837	103.187837252283	2
0	1847	103.609652302226	2
0	1875	105.412037252283	3
0	1897	106.975637252283	2
0	1915	107.832837252283	2
0	1937	109.050037252283	3
0	1953	109.972452302226	3
0	1959	110.041237252283	2
0	1995	111.532637252283	3
0	2005	112.051852302226	3
0	2017	112.616052302226	3
0	2039	113.605652302226	2
0	2049	114.181837252283	2
0	2051	114.446037252283	2
0	2053	114.479237252283	2
0	2057	114.768852302226	2
0	2059	115.039437252283	2
0	2115	117.385237252283	2
0	2121	117.562437252283	2
0	2123	117.713052302226	2
0	2129	117.838637252283	2
0	2137	118.005252302226	2
0	2177	121.547837252283	3
0	2221	124.225237252283	2
0	2229	125.074437252283	4
0	2235	125.135652302226	3
0	2241	125.389637252283	3
0	2293	128.043037252283	2
0	2297	128.195252302226	2
0	2307	128.767452302226	3
0	2321	129.904437252283	3
0	2365	132.257637252283	2
0	2367	132.464837252283	3
0	2373	132.933037252283	2
0	2429	135.790237252283	2
0	2435	136.278652302226	2
0	2449	136.795437252283	2
0	2465	137.759037252283	2
0	2475	138.039437252283	2
0	2483	138.272852302226	2
0	2487	138.360637252283	2
0	2509	139.121252302226	3
0	2511	139.311837252283	3
0	2519	139.834037252283	2
0	2525	140.347237252283	2
0	2529	140.570452302226	2
0	2533	140.632437252283	2
0	2535	140.675652302226	2
0	2543	141.005852302226	2
0	2545	141.037637252283	2
0	2565	141.686037252283	3
0	2583	143.018052302226	3
0	2593	143.668237252283	2
0	2647	146.640837252283	2
0	2653	147.059037252283	2
0	2655	147.113652302226	2
0	2671	147.733237252283	3
0	2673	147.763437252283	2
0	2691	148.532637252283	3
0	2751	152.339452302226	2
0	2771	153.359237252283	2
0	2777	153.603437252283	3
0	2787	153.988637252283	3
0	2823	156.042837252283	2
0	2829	156.109852302226	2
0	2875	159.107237252283	3
0	2881	159.407637252283	2
0	2883	159.899837252283	2
0	2889	160.256037252283	2
0	2921	161.366452302226	3
0	2923	161.450652302226	2
0	2927	161.731852302226	2
0	2937	162.547052302226	2
0	2939	162.639237252283	2
0	2947	162.850252302226	2
0	2957	163.002437252283	2
0	2995	165.485852302226	2
0	3069	169.808837252283	2
0	3081	170.313037252283	3
0	3103	171.028437252283	2
0	3105	171.093637252283	2
0	3127	171.987837252283	2
0	3145	173.664037252283	2
0	3155	174.222652302226	3
0	3167	174.527852302226	3
0	3229	177.403237252283	2
0	3261	179.035037252283	2
0	3269	179.315437252283	3
0	3271	179.379637252283	2
0	3279	179.655837252283	2
0	3297	181.130237252283	2
0	3333	183.876437252283	2
0	3371	186.077452302226	2
0	3413	188.363852302226	2
0	3421	188.937837252283	2
0	3433	189.784052302226	3
0	3435	189.808037252283	2
0	3475	191.921252302226	2
0	3561	196.421837252283	2
0	3577	197.719852302226	2
0	3583	198.228052302226	2
0	3587	198.367037252283	2
0	3615	200.134437252283	2
0	3627	200.892452302226	2
0	3631	201.497652302226	2
0	3643	201.862637252283	2
0	3647	202.042052302226	2
0	3663	202.869837252283	2
0	3711	206.067037252283	2
0	3731	206.938652302226	2
0	3733	207.022237252283	4
0	3735	207.041437252283	2
0	3751	208.267637252283	3
0	3755	208.378837252283	3
0	3757	208.468037252283	2
0	3759	208.535237252283	2
0	3765	208.881437252283	3
0	3805	210.612052302226	3
0	3813	211.040252302226	2
0	3819	211.279452302226	3
0	3847	212.967637252283	2
0	3853	213.413652302226	2
0	3863	213.787837252283	2
0	3877	214.794852302226	2
0	3935	218.788237252283	3
0	3959	219.980052302226	2
0	3961	220.252637252283	2
0	3967	220.705837252283	2
0	3985	221.401037252283	2
0	3989	221.725237252283	2
0	3995	221.967652302226	3
0	4017	223.577252302226	3
0	4025	223.814637252283	2
0	4027	223.898837252283	2
0	4041	224.256037252283	2
0	4045	224.361452302226	2
0	4057	225.270437252283	2
0	4059	225.277637252283	3
0	4061	225.301837252283	3
0	4069	225.966652302226	3
0	4079	226.416037252283	3
0	4087	226.939852302226	2
0	4089	227.019237252283	2
0	4111	228.524437252283	2
0	4115	228.694637252283	2
0	4125	229.056837252283	2
0	4127	229.135037252283	2
0	4139	229.687237252283	2
0	4159	230.769437252283	3
0	4163	230.848637252283	3
0	4171	231.193837252283	3
0	4173	231.636037252283	2
0	4199	232.650237252283	3
0	4201	233.096437252283	4
0	4209	233.605637252283	3
0	4231	234.535837252283	2
0	4239	235.186037252283	3
0	4251	235.467652302226	3
0	4253	235.727237252283	2
0	4263	236.659852302226	2
0	4265	236.818052302226	3
0	4269	237.427437252283	2
0	4297	238.788252302226	3
0	4313	239.853837252283	2
0	4337	241.311452302226	2
0	4349	242.373037252283	2
0	4407	245.145437252283	3
0	4453	247.212637252283	2
0	4467	248.512837252283	2
0	4471	248.591652302226	3
0	4487	249.375037252283	2
0	4495	249.797237252283	2
0	4515	251.009637252283	3
0	4521	251.630852302226	2
0	4523	251.675837252283	2
0	4537	252.646037252283	2
0	4549	253.864237252283	4
0	4553	254.403437252283	2
0	4557	254.609637252283	4
0	4563	254.942837252283	3
0	4567	255.001037252283	3
0	4573	255.128237252283	2
0	4575	255.347437252283	3
0	4583	255.657252302226	2
0	4629	259.283637252283	2
0	4631	259.329852302226	2
0	4635	259.541837252283	4
0	4651	260.524052302226	3
0	4655	260.587252302226	2
0	4671	261.178652302226	2
0	4673	261.450852302226	2
0	4687	262.527052302226	2
0	4729	265.622437252283	2
0	4777	268.203437252283	3
0	4797	269.686637252283	2
0	4801	269.760252302226	2
0	4811	270.473452302226	3
0	4813	270.481037252283	3
0	4837	271.241652302226	3
0	4849	272.609852302226	2
0	4869	273.860252302226	3
0	4875	274.473452302226	3
0	4889	275.644652302226	3
0	4891	275.663837252283	2
0	4893	275.829852302226	2
0	4917	276.840052302226	3
0	4925	277.452252302226	3
0	4949	278.405452302226	2
0	4979	279.501437252283	3
0	5011	281.215637252283	2
0	5033	282.052852302226	3
0	5039	282.409237252283	3
0	5049	282.575437252283	3
0	5057	282.877637252283	3
0	5079	284.480452302226	3
0	5085	284.909652302226	2
0	5135	287.443037252283	3
0	5143	287.866237252283	2
0	5193	290.749637252283	2
0	5227	292.532052302226	2
0	5239	292.954637252283	2
0	5247	293.337837252283	3
0	5267	294.665037252283	2
0	5269	294.685852302226	2
0	5307	298.131452302226	3
0	5323	299.094652302226	3
0	5333	299.547852302226	2
0	5337	299.722052302226	2
0	5365	301.858252302226	2
0	5387	303.226237252283	2
0	5395	303.503437252283	3
0	5401	303.622637252283	3
0	5403	303.815452302226	2
0	5427	305.377037252283	3
0	5491	308.763437252283	2
0	5495	308.996637252283	3
0	5499	309.256837252283	2
0	5503	309.408252302226	3
0	5519	310.426652302226	2
0	5523	310.490037252283	2
0	5525	310.493852302226	3
0	5529	310.696052302226	2
0	5531	310.761252302226	2
0	5559	312.550237252283	4
0	5563	312.581437252283	2
0	5569	313.454637252283	2
0	5571	313.455452302226	2
0	5575	313.741652302226	3
0	5583	313.981837252283	3
0	5593	314.512037252283	2
0	5615	316.812637252283	3
0	5635	318.148837252283	3
0	5643	319.004052302226	2
0	5647	319.449037252283	2
0	5655	320.011237252283	2
0	5691	321.929437252283	2
0	5725	324.414852302226	2
0	5741	325.011052302226	3
0	5757	325.409637252283	2
0	5801	327.793037252283	2
0	5823	329.141852302226	3
0	5831	329.347052302226	2
0	5837	329.752237252283	2
0	5839	329.939252302226	2
0	5841	329.957437252283	2
0	5849	330.397452302226	2
0	5855	330.685637252283	4
0	5879	332.367052302226	2
0	5901	333.430037252283	2
0	5911	334.048252302226	2
0	5921	334.391237252283	2
0	5923	334.408437252283	2
0	5931	334.550452302226	2
0	5985	337.057637252283	2
0	6017	338.732852302226	2
0	6041	339.773252302226	3
0	6047	339.873837252283	3
0	6065	340.478452302226	2
0	6067	340.605037252283	2
0	6087	341.243652302226	2
0	6097	341.949852302226	2
0	6117	342.988437252283	2
0	6141	343.984637252283	2
0	6183	347.111252302226	2
0	6209	348.397837252283	2
0	6219	348.619037252283	2
0	6245	350.008237252283	3
0	6263	351.025437252283	2
0	6269	351.424637252283	2
0	6271	351.559852302226	2
0	6273	351.674837252283	2
0	6297	352.435037252283	3
0	6299	352.543237252283	2
0	6301	352.548452302226	2
0	6309	353.068652302226	3
0	6321	353.742852302226	2
0	6323	353.745437252283	3
0	6337	354.150637252283	3
0	6375	356.358037252283	2
0	6379	356.670237252283	2
0	6387	357.093052302226	2
0	6411	358.211452302226	2
0	6415	358.556637252283	3
0	6433	358.957652302226	2
0	6443	359.414252302226	2
0	6445	359.438452302226	2
0	6451	359.702652302226	2
0	6493	362.261037252283	2
0	6503	362.879652302226	3
0	6521	363.726637252283	3
0	6531	364.392837252283	2
0	6533	364.445852302226	2
0	6567	365.701052302226	2
0	6569	365.706252302226	2
0	6571	365.792452302226	2
0	6579	365.896852302226	2
0	6603	366.861052302226	3
0	6657	370.519037252283	2
0	6659	370.664237252283	2
0	6665	371.067252302226	2
0	6667	371.092437252283	3
0	6681	371.642637252283	2
0	6701	372.615837252283	3
0	6715	373.643252302226	2
0	6727	373.947452302226	2
0	6729	374.309037252283	2
0	6739	374.641237252283	3
0	6755	375.527852302226	2
0	6763	376.226052302226	3
0	6789	377.773437252283	2
0	6801	378.793252302226	3
0	6805	378.896452302226	2
0	6827	379.964637252283	2
0	6851	381.022837252283	2
0	6853	381.075037252283	2
0	6861	381.773237252283	2
0	6865	381.959437252283	2
0	6867	382.069637252283	2
0	6901	383.678237252283	2
0	6909	384.191437252283	2
0	6913	384.314052302226	2
0	6957	387.220637252283	2
0	6971	388.102837252283	2
0	6989	389.740452302226	2
0	7039	394.115237252283	2
0	7045	394.248052302226	3
0	7055	394.618437252283	2
0	7061	394.866452302226	2
0	7063	394.870652302226	2
0	7075	395.771837252283	4
0	7081	396.010852302226	3
0	7105	397.349037252283	2
0	7115	397.706237252283	2
0	7129	398.830437252283	2
0	7131	398.937637252283	2
0	7137	399.087837252283	2
0	7145	399.253037252283	2
0	7177	401.019652302226	2
0	7265	406.398252302226	2
0	7273	406.999237252283	4
0	7275	407.007452302226	3
0	7289	407.440652302226	3
0	7297	408.130437252283	2
0	7327	409.837052302226	3
0	7329	410.287637252283	2
0	7333	410.403252302226	3
0	7347	410.805452302226	2
0	7365	412.012837252283	2
0	7401	413.503037252283	2
0	7403	413.517237252283	2
0	7405	413.702437252283	2
0	7407	413.738652302226	2
0	7431	414.861637252283	2
0	7433	415.221852302226	3
0	7435	415.241837252283	3
0	7455	416.025037252283	2
0	7473	416.808052302226	2
0	7477	417.778252302226	2
0	7489	418.282452302226	2
0	7505	419.476237252283	3
0	7531	420.936637252283	4
0	7547	422.347837252283	2
0	7551	422.574852302226	2
0	7585	424.902037252283	3
0	7587	425.285237252283	2
0	7595	426.043252302226	2
0	7597	426.252437252283	2
0	7601	426.641637252283	3
0	7611	427.090037252283	2
0	7629	428.053452302226	2
0	7633	428.176437252283	2
0	7661	429.549052302226	2
0	7663	430.118837252283	3
0	7669	430.263037252283	2
0	7679	431.379237252283	3
0	7723	433.591252302226	2
0	7739	434.341452302226	2
0	7789	437.605437252283	2
0	7797	438.368637252283	2
0	7801	438.480837252283	2
0	7805	438.622037252283	2
0	7819	439.208437252283	2
0	7841	440.523037252283	2
0	7847	440.640252302226	2
0	7851	440.839237252283	2
0	7857	441.057437252283	2
0	7861	441.079452302226	2
0	7869	441.699637252283	2
0	7877	442.233652302226	3
0	7881	442.344837252283	3
0	7905	443.445037252283	2
0	7907	443.463852302226	2
0	7959	447.268252302226	3
0	7971	448.136452302226	2
0	7977	448.462437252283	2
0	7993	449.534637252283	2
0	8083	454.292237252283	4
0	8103	454.947637252283	2
0	8107	455.205837252283	2
0	8115	455.531037252283	4
0	8127	456.783452302226	2
0	8147	457.559652302226	2
0	8151	457.841637252283	3
0	8157	458.195852302226	3
0	8189	459.213652302226	3
0	8243	462.586852302226	2
0	8245	463.148037252283	2
0	8283	464.747237252283	2
0	8295	465.435437252283	3
0	8319	466.501452302226	2
0	8343	467.610837252283	2
0	8359	468.670037252283	3
0	8381	470.301437252283	2
0	8425	472.435052302226	2
0	8443	473.598837252283	3
0	8445	473.704037252283	3
0	8457	474.112437252283	4
0	8459	474.182637252283	4
0	8469	474.857837252283	2
0	8479	475.230037252283	2
0	8501	476.803437252283	3
0	8533	478.682637252283	2
0	8537	479.320252302226	2
0	8549	479.845452302226	2
0	8555	480.127037252283	2
0	8561	480.386237252283	2
0	8565	480.424637252283	2
0	8575	480.864652302226	3
0	8591	481.892837252283	2
0	8639	484.259037252283	3
0	8671	485.801652302226	3
0	8687	487.754437252283	2
0	8701	488.245037252283	2
0	8703	488.357052302226	2
0	8711	488.775237252283	2
0	8717	489.129252302226	2
0	8719	489.139437252283	2
0	8763	491.904452302226	2
0	8789	493.811637252283	2
0	8791	494.032837252283	2
0	8827	495.942037252283	3
0	8839	496.253052302226	2
0	8843	496.482237252283	2
0	8851	496.981437252283	2
0	8895	499.578837252283	2
0	8919	500.689652302226	3
0	8937	501.959052302226	2
0	8951	503.110037252283	3
0	8971	503.985237252283	3
0	8983	504.304437252283	2
0	9001	505.052652302226	2
0	9017	505.674837252283	2
0	9047	508.797052302226	3
0	9053	508.907037252283	2
0	9147	514.541852302226	2
0	9149	514.568837252283	2
0	9167	515.682037252283	2
0	9217	518.893237252283	2
0	9239	520.333437252283	2
0	9251	521.004852302226	2
0	9301	523.613037252283	3
0	9303	523.637237252283	3
0	9321	525.384852302226	2
0	9349	526.801252302226	2
0	9383	528.451437252283	3
0	9385	528.713637252283	3
0	9387	528.731837252283	3
0	9391	528.902852302226	2
0	9423	531.680237252283	2
0	9429	531.990452302226	2
0	9445	532.953437252283	3
0	9451	533.131837252283	3
0	9453	533.177037252283	2
0	9517	537.007437252283	2
0	9523	537.286637252283	2
0	9549	538.910837252283	2
0	9589	541.097037252283	3
0	9621	542.556652302226	2
0	9655	544.032837252283	2
0	9669	544.570037252283	2
0	9683	545.006237252283	2
0	9685	545.030437252283	2
0	9691	545.710637252283	2
0	9717	547.758252302226	2
0	9725	547.924837252283	2
0	9727	548.299037252283	2
0	9753	549.861852302226	2
0	9767	550.455237252283	2
0	9771	550.653052302226	2
0	9773	550.774437252283	2
0	9775	550.954637252283	2
0	9787	551.224252302226	2
0	9807	552.156652302226	2
0	9815	552.797837252283	2
0	9817	552.875037252283	2
0	9823	553.145852302226	2
0	9841	554.351237252283	2
0	9875	556.603637252283	3
0	9889	556.912837252283	2
0	9893	557.033852302226	2
0	9931	559.352837252283	2
0	9935	559.609037252283	2
0	9939	559.637237252283	2
0	9951	560.612437252283	2
0	9993	564.242837252283	3
0	9997	564.392037252283	3
0	10001	564.556237252283	2
0	10023	566.140652302226	2
0	10027	566.298852302226	2
0	10045	567.968437252283	2
0	10059	568.814052302226	2
0	10065	568.919252302226	3
0	10069	568.987452302226	3
0	10075	569.554652302226	3
0	10079	569.714837252283	2
0	10081	569.821037252283	2
0	10089	570.197237252283	2
0	10115	572.176437252283	2
0	10119	572.383637252283	2
0	10125	572.864052302226	2
0	10133	573.911837252283	4
0	10137	574.200037252283	3
0	10139	574.240237252283	3
0	10143	574.439437252283	2
0	10151	575.459637252283	3
0	10173	576.479037252283	2
0	10175	576.494452302226	3
0	10189	577.129652302226	2
0	10191	577.134237252283	2
0	10197	577.740437252283	2
0	10223	579.477837252283	2
0	10229	579.907037252283	2
0	10261	581.981237252283	3
0	10273	582.940437252283	2
0	10285	583.429052302226	3
0	10305	585.127637252283	2
0	10317	585.508852302226	2
0	10325	585.982052302226	2
0	10365	588.324837252283	2
0	10375	588.711037252283	3
0	10377	588.836237252283	2
0	10383	589.011452302226	2
0	10385	589.040652302226	3
0	10389	589.447437252283	2
0	10397	589.874852302226	2
0	10415	590.480637252283	2
0	10455	592.463452302226	2
0	10505	596.014437252283	2
0	10509	596.092637252283	2
0	10523	596.523052302226	2
0	10537	597.372837252283	2
0	10541	597.566037252283	2
0	10543	597.611652302226	2
0	10597	600.408237252283	2
0	10637	602.553237252283	4
0	10645	602.971437252283	2
0	10653	603.525637252283	3
0	10659	603.715837252283	2
0	10667	604.412037252283	2
0	10697	606.674437252283	2
0	10731	607.975637252283	3
0	10733	608.000837252283	2
0	10739	608.513037252283	3
0	10767	609.862452302226	2
0	10769	610.106652302226	2
0	10777	610.882437252283	2
0	10829	613.649037252283	2
0	10843	614.475852302226	3
0	10859	615.159237252283	2
0	10879	616.625437252283	2
0	10883	616.690637252283	2
0	10885	616.740837252283	2
0	10911	618.123037252283	2
0	10929	618.894652302226	2
0	10933	619.225237252283	2
0	10975	621.631452302226	2
0	10981	621.902652302226	2
0	10997	623.337852302226	2
0	11029	624.978052302226	2
0	11033	625.091252302226	2
0	11035	625.346037252283	2
0	11081	627.544237252283	3
0	11107	628.754637252283	2
0	11161	632.006637252283	2
0	11169	632.171852302226	2
0	11175	632.259052302226	2
0	11183	633.044252302226	2
0	11199	633.719837252283	2
0	11203	633.864037252283	2
0	11221	635.048237252283	3
0	11229	635.516437252283	3
0	11239	636.465652302226	3
0	11241	636.775852302226	3
0	11273	638.608052302226	2
0	11299	640.121037252283	2
0	11307	640.677237252283	2
0	11313	641.131652302226	2
0	11321	641.374852302226	3
0	11409	645.729637252283	2
0	11413	645.773837252283	2
0	11433	646.541037252283	2
0	11473	649.246852302226	3
0	11477	649.786637252283	2
0	11509	651.320052302226	2
0	11511	651.448837252283	3
0	11529	653.058252302226	2
0	11559	654.917452302226	3
0	11563	655.276652302226	2
0	11567	655.838852302226	2
0	11571	655.957052302226	2
0	11607	657.894437252283	3
0	11627	659.444637252283	2
0	11633	659.681252302226	3
0	11643	660.268837252283	2
0	11657	660.827037252283	2
0	11683	662.312852302226	2
0	11741	665.672452302226	2
0	11745	665.829652302226	2
0	11747	665.987037252283	2
0	11775	667.543237252283	2
0	11779	668.089437252283	2
0	11781	668.107852302226	3
0	11785	668.346052302226	3
0	11807	670.042252302226	2
0	11821	670.696637252283	2
0	11901	674.161237252283	2
0	11905	674.237852302226	2
0	11911	674.441837252283	2
0	11923	675.443037252283	2
0	11925	675.611052302226	2
0	11955	676.991437252283	2
0	11957	677.112637252283	2
0	11969	677.856452302226	3
0	11985	678.653652302226	2
0	11989	678.699837252283	3
0	12019	679.797237252283	2
0	12021	680.502437252283	2
0	12023	680.504852302226	2
0	12035	681.129637252283	2
0	12037	681.184252302226	2
0	12043	681.246452302226	2
0	12055	682.586837252283	3
0	12057	682.676652302226	2
0	12075	684.001037252283	2
0	12091	684.953237252283	2
0	12119	686.751637252283	2
0	12129	687.297837252283	2
0	12161	689.906437252283	2
0	12215	692.163637252283	4
0	12235	693.439652302226	2
0	12261	694.601237252283	2
0	12289	696.038252302226	3
0	12321	697.865652302226	2
0	12323	698.003852302226	2
0	12349	700.467052302226	3
0	12357	700.911252302226	2
0	12367	701.270637252283	2
0	12397	702.992452302226	2
0	12419	704.071652302226	2
0	12441	704.936237252283	2
0	12443	704.987852302226	3
0	12451	705.557437252283	2
0	12475	706.926637252283	2
0	12483	707.001037252283	3
0	12489	707.331052302226	2
0	12497	707.698237252283	3
0	12527	709.076637252283	2
0	12539	709.409837252283	2
0	12545	709.603037252283	2
0	12551	709.931237252283	2
0	12567	711.187252302226	2
0	12577	711.649437252283	2
0	12579	711.691452302226	2
0	12589	712.629852302226	2
0	12595	713.010052302226	3
0	12611	714.189252302226	2
0	12621	714.820637252283	3
0	12683	718.255837252283	4
0	12685	718.271037252283	2
0	12689	718.666237252283	2
0	12713	719.812437252283	2
0	12733	721.259052302226	3
0	12769	722.480837252283	2
0	12789	723.181037252283	2
0	12849	727.143237252283	2
0	12861	727.422437252283	2
0	12881	728.218252302226	2
0	12933	730.014452302226	2
0	12935	730.050037252283	2
0	12943	730.602237252283	2
0	12951	730.939437252283	2
0	12953	731.002652302226	3
0	12965	731.635637252283	2
0	12973	732.348852302226	2
0	13011	734.727252302226	2
0	13039	736.132452302226	2
0	13057	737.472037252283	2
0	13069	737.849652302226	2
0	13083	738.243852302226	2
0	13091	738.434437252283	2
0	13099	738.814052302226	2
0	13169	742.890652302226	2
0	13175	742.997852302226	2
0	13177	743.297837252283	2
0	13193	744.222437252283	3
0	13195	744.229052302226	2
0	13197	744.527637252283	2
0	13203	744.633837252283	2
0	13233	746.342452302226	2
0	13237	746.727652302226	2
0	13243	746.923037252283	3
0	13265	748.856852302226	2
0	13293	750.420637252283	2
0	13321	752.257252302226	3
0	13343	753.363837252283	2
0	13361	754.003037252283	2
0	13373	754.575237252283	2
0	13401	755.916437252283	2
0	13413	756.779652302226	2
0	13459	758.989852302226	2
0	13483	759.673237252283	2
0	13485	759.931252302226	3
0	13487	759.943452302226	3
0	13491	760.045652302226	3
0	13495	760.109437252283	3
0	13511	760.923852302226	2
0	13547	762.750452302226	2
0	13551	762.850837252283	2
0	13567	764.293037252283	2
0	13569	764.356237252283	2
0	13577	764.822437252283	4
0	13585	765.173637252283	2
0	13589	765.465837252283	2
0	13593	765.548037252283	2
0	13623	766.896852302226	2
0	13661	769.401237252283	2
0	13735	773.795652302226	3
0	13741	774.166837252283	2
0	13757	774.984037252283	2
0	13763	775.598237252283	3
0	13803	777.872437252283	2
0	13805	777.916637252283	2
0	13839	779.354852302226	3
0	13841	779.360052302226	2
0	13845	779.639252302226	3
0	13849	779.775452302226	3
0	13893	781.727037252283	2
0	13895	781.757237252283	3
0	13913	782.864437252283	2
0	13919	783.206637252283	3
0	13929	783.825837252283	2
0	13933	783.995852302226	2
0	13945	784.283037252283	2
0	13963	784.867052302226	2
0	14005	786.923237252283	2
0	14029	788.910852302226	2
0	14039	789.453052302226	3
0	14047	790.001252302226	2
0	14055	790.869452302226	2
0	14079	792.927237252283	2
0	14123	795.289637252283	2
0	14143	796.438837252283	2
0	14167	797.270252302226	3
0	14193	798.509037252283	3
0	14207	799.136452302226	2
0	14219	800.216237252283	2
0	14295	804.147252302226	2
0	14299	804.508437252283	2
0	14325	805.702837252283	2
0	14331	806.397037252283	2
0	14371	808.448252302226	2
0	14383	809.399637252283	2
0	14399	810.269452302226	2
0	14441	812.471837252283	3
0	14475	813.770237252283	3
0	14497	815.130437252283	2
0	14503	815.473452302226	2
0	14529	816.774637252283	2
0	14561	818.042837252283	2
0	14573	818.502252302226	3
0	14595	819.747437252283	3
0	14619	821.367637252283	2
0	14665	823.755837252283	3
0	14687	824.629237252283	2
0	14725	826.152037252283	3
0	14735	826.861237252283	2
0	14793	830.025637252283	2
0	14823	831.879852302226	2
0	14831	831.946037252283	2
0	14871	833.819237252283	2
0	14897	835.265437252283	2
0	14901	835.344637252283	2
0	14943	837.158852302226	3
0	14993	840.641237252283	2
0	15037	842.705052302226	2
0	15045	843.329252302226	2
0	15055	844.062437252283	3
0	15067	844.997452302226	2
0	15091	846.384652302226	2
0	15095	846.694637252283	2
0	15105	847.395837252283	2
0	15113	847.778037252283	2
0	15117	848.000237252283	2
0	15123	848.327052302226	2
0	15129	848.468437252283	2
0	15193	852.252452302226	3
0	15219	854.228852302226	2
0	15245	855.729237252283	3
0	15285	857.161652302226	2
0	15319	858.806437252283	2
0	15331	859.988637252283	2
0	15333	860.166852302226	2
0	15367	862.882052302226	2
0	15377	863.634452302226	2
0	15439	867.505437252283	2
0	15445	867.826052302226	2
0	15449	867.845637252283	2
0	15481	869.915252302226	2
0	15501	870.964037252283	2
0	15505	871.295452302226	2
0	15525	872.362237252283	2
0	15547	873.521437252283	2
0	15551	873.659637252283	2
0	15557	873.735837252283	2
0	15577	874.926237252283	2
0	15649	879.307852302226	3
0	15669	880.224037252283	2
0	15687	881.742252302226	3
0	15719	883.321452302226	2
0	15731	883.938437252283	2
0	15747	884.510837252283	2
0	15751	884.635037252283	2
0	15763	885.370052302226	2
0	15769	885.713237252283	2
0	15773	885.920252302226	3
0	15775	886.051437252283	2
0	15799	886.789637252283	3
0	15805	887.324837252283	3
0	15807	887.386037252283	3
0	15811	887.768237252283	3
0	15829	888.546437252283	2
0	15917	894.187252302226	3
0	15923	894.281437252283	2
0	15955	896.067837252283	2
0	15989	897.239037252283	2
0	16023	898.682637252283	2
0	16037	899.565852302226	2
0	16045	899.867052302226	2
0	16053	900.006837252283	2
0	16069	900.791252302226	3
0	16091	901.744652302226	3
0	16129	905.393437252283	2
0	16149	906.765852302226	2
0	16179	909.298637252283	2
0	16239	914.130252302226	2
0	16243	914.239452302226	3
0	16253	915.048037252283	2
0	16315	918.317652302226	2
0	16369	921.432852302226	2
0	16395	922.637052302226	2
0	16401	922.943252302226	3
0	16425	924.153437252283	3
0	16449	925.440652302226	2
0	16469	926.550252302226	2
0	16503	928.081452302226	2
0	16525	929.266237252283	4
0	16547	930.504637252283	2
0	16599	934.398237252283	2
0	16613	934.762052302226	3
0	16645	936.354252302226	2
0	16647	936.413452302226	2
0	16661	937.723437252283	2
0	16669	937.943637252283	2
0	16671	937.998652302226	2
0	16679	938.304037252283	2
0	16691	938.770237252283	3
0	16699	939.196252302226	2
0	16701	939.281437252283	2
0	16753	942.699037252283	3
0	16767	943.127237252283	2
0	16769	943.241437252283	2
0	16779	943.732637252283	2
0	16849	947.754252302226	2
0	16913	950.834237252283	2
0	16943	952.139652302226	2
0	16945	952.149852302226	2
0	16955	952.403437252283	3
0	16973	953.102052302226	2
0	16979	953.331837252283	2
0	17011	954.639252302226	2
0	17013	954.775437252283	2
0	17015	954.847637252283	2
0	17059	956.591837252283	2
0	17155	962.011237252283	2
0	17179	963.621437252283	3
0	17185	964.087637252283	2
0	17189	964.170452302226	2
0	17221	966.045037252283	3
0	17259	967.647237252283	3
0	17293	969.893052302226	2
0	17295	969.969637252283	2
0	17309	970.929837252283	2
0	17323	971.819037252283	2
0	17327	972.650237252283	2
0	17329	972.816437252283	2
0	17331	973.174637252283	2
0	17349	974.369837252283	3
0	17355	974.895452302226	2
0	17381	975.903852302226	2
0	17403	976.748052302226	2
0	17411	977.377252302226	2
0	17419	977.947452302226	2
0	17427	978.104237252283	2
0	17431	978.189437252283	2
0	17445	978.852637252283	2
0	17447	978.886837252283	2
0	17451	978.944037252283	2
0	17499	981.297237252283	2
0	17505	981.526852302226	2
0	17535	983.191437252283	2
0	17547	983.495052302226	3
0	17567	984.781037252283	3
0	17575	985.104237252283	3
0	17613	986.407237252283	3
0	17643	987.611637252283	2
0	17653	987.979837252283	3
0	17665	988.402037252283	3
0	17677	989.223237252283	2
0	17735	992.409037252283	2
0	17787	994.526237252283	2
0	17797	994.861437252283	2
0	17821	996.540637252283	2
0	17921	1002.061637252283	4
0	17927	1002.284837252283	2
0	17961	1003.694237252283	2
0	17965	1003.766437252283	2
0	17971	1004.257052302226	2
0	17999	1005.663452302226	2
0	18011	1006.119637252283	2
0	18035	1007.249837252283	2
0	18041	1007.551037252283	2
0	18063	1008.371237252283	2
0	18089	1009.928852302226	2
0	18105	1010.548837252283	2
0	18107	1010.554052302226	2
0	18147	1012.955237252283	2
0	18181	1014.426837252283	2
0	18197	1014.909037252283	2
0	18207	1015.461237252283	2
0	18229	1016.199452302226	3
0	18293	1019.247052302226	3
0	18295	1019.612252302226	2
0	18299	1019.738452302226	3
0	18305	1020.184637252283	3
0	18333	1021.972237252283	2
0	18375	1023.527437252283	2
0	18409	1024.740237252283	3
0	18437	1026.335437252283	2
0	18475	1028.406437252283	3
0	18487	1029.590637252283	2
0	18495	1029.970652302226	2
0	18499	1030.238837252283	2
0	18519	1031.520852302226	3
0	18521	1031.684052302226	2
0	18531	1032.154237252283	2
0	18539	1032.330437252283	2
0	18541	1032.378637252283	2
0	18543	1032.584252302226	2
0	18547	1032.697837252283	2
0	18561	1033.397852302226	2
0	18563	1033.548037252283	2
0	18565	1033.567052302226	2
0	18581	1034.054252302226	2
0	18599	1035.327237252283	2
0	18623	1036.437437252283	2
0	18649	1037.794052302226	2
0	18671	1039.092452302226	2
0	18675	1039.233637252283	2
0	18681	1039.552652302226	2
0	18695	1040.737852302226	2
0	18703	1041.134052302226	2
0	18709	1041.440237252283	2
0	18727	1041.821252302226	2
0	18731	1041.892437252283	3
0	18755	1042.863637252283	2
0	18793	1044.182037252283	2
0	18795	1044.191452302226	2
0	18847	1047.379252302226	2
0	18925	1053.048637252283	2
0	18927	1053.098652302226	3
0	18929	1053.239837252283	2
0	18933	1053.887037252283	2
0	18963	1055.634437252283	2
0	18971	1055.907637252283	2
0	18973	1055.925837252283	2